% Model:              oppgave4.mph
% Version:            COMSOL 6.2.0.278
% Date:               Apr 18 2024, 11:52
% Dimension:          1
% Nodes:              669
% Expressions:        1
% Description:        Line graph
% Arc length (mm)         Magnetic flux density, z-component
0                         -7.747572849873357E-7
6.9439114132029545        4.650736196923626E-6
13.455284638102171        9.74603792229726E-6
13.700420923754109        9.93510764531471E-6
13.89015716522033         1.0083548476185474E-5
14.085222498760459        1.0236391358826075E-5
14.354066590721914        1.0444132250343718E-5
20.838741126964237        1.5523671206557955E-5
26.919363234925072        2.0293974522126424E-5
27.4103469527721          2.067361014353867E-5
27.789667177908996        2.0971125461721405E-5
28.179633231237744        2.127745706514277E-5
28.718101166610154        2.169458316680369E-5
34.74293920611581         2.6522006734907582E-5
35.34217531619356         2.7126135365377565E-5
35.34217531619356         2.7238202821242713E-5
39.73934496063498         3.141769892976907E-5
40.92062992563763         3.254050662506241E-5
41.619568783726095        3.3204845841806436E-5
41.75343245986937         3.333208285078129E-5
42.49023226264717         3.403240877802072E-5
42.62392649094102         3.415948472734027E-5
44.003096202584175        3.547038126054472E-5
48.16468960354541         3.9425962880319886E-5
51.890496748242185        4.296733101517569E-5
53.46554336824556         4.446440794223337E-5
54.34693490369136         4.5302167862899736E-5
54.575946747221224        4.551984290985845E-5
55.51362262549071         4.6411100923803934E-5
55.73660545531652         4.662304541193699E-5
57.57549840417403         4.837090745620947E-5
60.987203890897035        5.161372293939704E-5
64.04164853584939         5.4971691874534795E-5
65.7731494710938          5.7175681949897926E-5
66.75293737128993         5.8273727513996965E-5
68.01859366606607         5.911883378309266E-5
68.01859366606607         5.9795754418103644E-5
68.32148680430419         5.94732846279142E-5
68.58963707292082         5.97870787594127E-5
68.58963707292082         5.81133200338225E-5
74.02711812872815         6.50864896809996E-5
75.83605566542928         6.740631906432989E-5
77.75514324057121         6.986740777285278E-5
81.21166232575467         7.430013934879965E-5
81.57242427722576         7.476279002547047E-5
81.84545986904402         7.511293809622702E-5
87.23329350948279         8.2022438583667E-5
87.85032564193546         8.281373692442289E-5
89.1177304257235          8.443909036994136E-5
95.10128266516733         9.211255615863156E-5
96.07371275571694         9.335962624895958E-5
96.47406780461267         9.38730521618779E-5
96.663036574221           9.411539071441224E-5
96.7114437783942          9.417746939448128E-5
98.7265821515416          9.676173618902682E-5
100.33184678971304        9.882037005564565E-5
100.75132518113355        9.935832024925168E-5
104.20834272271873        1.0379169105888309E-4
104.20834272271873        1.0366219825768102E-4
105.3649227773771         1.0532708795255692E-4
106.3758878857634         1.0678236585057375E-4
108.04233362808822        1.0918120398745122E-4
108.69358901326262        1.1011868200736189E-4
112.33006177055273        1.1535336160859138E-4
113.30146941318645        1.167516967841208E-4
115.73754063764761        1.202584059490017E-4
116.49197399666173        1.2104791040176927E-4
116.49197399666173        1.2134440801157769E-4
117.1525666615297         1.221187017715863E-4
122.24788795337031        1.3037799127919573E-4
122.24788795337031        1.2882521364877218E-4
125.56708522557471        1.350111479290892E-4
126.5052339298046         1.367595604980344E-4
127.67619374961652        1.3894185937822053E-4
131.41446114633317        1.459088078726629E-4
131.6742568264748         1.463929848804968E-4
131.72868094231944        1.4649441422508525E-4
134.5270221093482         1.517096374051311E-4
135.0269771820483         1.5264139558917548E-4
135.4313666959925         1.5339504978679008E-4
137.71523805492677        1.5765146390516005E-4
139.01255417655324        1.6006925098168624E-4
143.54872043429214        1.6852323068031628E-4
147.36460379812013        1.7563483079750922E-4
147.36460379812013        1.7419653370931006E-4
151.27941373566296        1.8227724950163003E-4
151.41454619186914        1.82556181810054E-4
152.48961800072738        1.8477528053574376E-4
156.63337368319498        1.9332857239845122E-4
156.99462418892392        1.940742440180701E-4
157.07111432143654        1.9423213036034783E-4
161.6730251135857         2.0373111851207094E-4
162.1814841959573         2.0478064924337561E-4
163.72731879015748        2.0797146826574393E-4
167.49198985004597        2.1574227639484174E-4
170.55194795347518        2.220584583205823E-4
172.94842220004534        2.2700511667669726E-4
174.43342670965296        2.3122079150038831E-4
175.13517339105908        2.3399299645979568E-4
175.93813726592884        2.3584870406339183E-4
180.48976650380672        2.4685330055581646E-4
185.13560412364245        2.5983245097389553E-4
186.01571222896212        2.621992588787281E-4
186.58835943067788        2.6373923551967573E-4
187.5150522520962         2.6623132016453645E-4
188.78420038372315        2.6964434387398965E-4
188.78420038372315        2.667414954376122E-4
189.20977498750403        2.679588924289038E-4
190.0232430309867         2.702858958258393E-4
191.80007741717105        2.753687010885287E-4
193.0024307068095         2.7880814804864167E-4
196.1905415475686         2.879280450325385E-4
197.76416563336716        2.924295477313732E-4
200.99489204157112        3.016713506352398E-4
203.9477987958603         3.101184237601373E-4
205.22987772930173        3.137859335746413E-4
205.4836892726296         3.145119858495123E-4
206.249176593742          3.167017357859862E-4
209.93698689703126        3.2725107103248076E-4
211.75849150685417        3.324616597563417E-4
214.26921391103485        3.3964382211674376E-4
215.89787105171752        3.443027521499221E-4
222.4751101564974         3.63117575746133E-4
222.4751101564974         3.6924864723987115E-4
223.09029536197           3.7041075136853044E-4
223.5009096291908         3.7117919663601755E-4
223.5881087519            3.665989511099835E-4
223.5881087519            3.714929832461109E-4
230.03458025985242        3.929198460817796E-4
233.794342100706          4.0827092556921634E-4
234.33719754180117        4.104874002767068E-4
238.42984579603467        4.2719765250124524E-4
243.39218881917054        4.474588619651916E-4
244.67917066971245        4.51231652654176E-4
248.2095594159964         4.650100170026164E-4
248.94954228246172        4.682086360327696E-4
250.4258382328926         4.745900112445267E-4
252.44036706900692        4.832979294464271E-4
254.63314955894032        4.927763594468286E-4
256.59036478397513        5.012365362274158E-4
257.19737500947406        5.038603732738775E-4
260.3520995854418         5.174968539559011E-4
260.707327282419          5.190323463613081E-4
264.54490989597457        5.356205206742328E-4
264.5871284481682         5.358030128245134E-4
265.4452077364864         5.390346885477293E-4
266.3808137949868         5.433026260475729E-4
270.0974522164356         5.621532792244851E-4
271.94917883183115        5.715451684122615E-4
272.6299486846136         5.749980080304609E-4
273.98999328887123        5.818961041680983E-4
275.5094382501509         5.896026730452842E-4
277.2341266318439         5.983502289909795E-4
279.652165807876          6.1022214086022E-4
279.65216580787603        6.106144346270502E-4
283.39974499316077        6.317761792103585E-4
283.9494822978541         6.349379693586198E-4
285.01956296011394        6.410924916493442E-4
288.6904946822218         6.622056954556142E-4
290.8946299434816         6.748826833459917E-4
290.8946299434816         6.799543276290109E-4
293.83547222788485        6.98481620748532E-4
296.90640051380143        7.178284550905E-4
297.41532362131585        7.210346683710365E-4
298.4481750023224         7.2754162741005E-4
304.0069547047011         7.60638028007309E-4
305.1710202600925         7.668220434165545E-4
306.32763368651354        7.748780400021237E-4
311.28026711393653        8.093739200165507E-4
313.68832998147553        8.261464611228379E-4
316.11092960719816        8.430202530633422E-4
316.1760628562367         8.434739165085994E-4
317.25373502436537        8.509800746669676E-4
320.5381872880543         8.738568073914162E-4
323.36970525824995        8.935787806789463E-4
323.74323999107077        9.013911141870351E-4
323.74323999107077        8.961805095396489E-4
325.804151589542          9.16203637900954E-4
325.804151589542          9.155870358810496E-4
327.1471136883599         9.266729698038829E-4
327.1471136883599         9.23499266455001E-4
332.18401480640193        9.501041090606689E-4
332.184014806402          9.700269419360249E-4
335.8436044358211         9.865861683373376E-4
338.5138066887035         0.0010132051302250988
339.7239507417321         0.0010252689274118081
343.0443964250309         0.0010583700968077592
347.9113874980183         0.0011068886124895104
349.18982826067634        0.0011196332523010508
352.86162286765955        0.0011562369816992507
356.4788194923849         0.001192296429626898
359.9791705602157         0.0012213809549370311
359.9791705602157         0.0012271910566416828
361.6270513771517         0.0012412000099590015
366.9327238130332         0.0013050113079937748
368.3585616647754         0.001322159853292476
371.2910367267465         0.0013574287174035497
376.7018510124722         0.0014225045559838273
377.3090047939951         0.0014298067917275343
381.6530743268089         0.0014820528960606066
382.10741060842474        0.0014875171964343207
382.60290289327725        0.0014934764798700685
384.053900221738          0.0015109276180797875
384.55260156469507        0.001516925496842632
392.9909582108383         0.001618413573496067
393.91476905980795        0.0016295242423365872
394.0138551010902         0.0016307159497003117
396.3060313134358         0.001658283942485736
397.2820974038162         0.0016700230848748665
397.28209740381624        0.001685831389769389
397.8775005451419         0.0016938506858174196
401.1105973272769         0.0017373962408343889
403.20106878734936        0.0017655521378304195
403.6470777713105         0.0017715592913608853
405.3639740601637         0.0017946836228741898
405.36397406016374        0.0018073178588788041
406.32479091273217        0.0018212247231787475
406.65716053862224        0.0018260354415506421
406.8854777997762         0.0018321782105643755
407.36414544477446        0.0018429984663883296
407.44847893016356        0.0018444047921187723
407.6551146554213         0.001847850601762687
408.2140749302354         0.001857171694246174
409.7522889173654         0.0018799190800861086
409.7522889173654         0.0018828225955346378
413.4023130145937         0.0019408586749574664
414.463415313556          0.0019585744879201607
415.50455947641797        0.00197016377045278
417.16267065112015        0.0019934305663726853
421.21080007008635        0.0020535759654557477
421.67062856875583        0.002051089887780963
422.0521516974985         0.0020579898799671383
425.1023802465911         0.002113154433749631
427.20915385275384        0.00215125624285481
428.98237375921644        0.002183325605305482
433.1922619770183         0.002259463049195806
434.78160235573387        0.002288206879826605
435.4305063080051         0.002299942556809034
436.29411894967706        0.0023155613228300013
436.73184628018146        0.002323477789572422
437.33498298788277        0.002334385748374422
437.6006321505881         0.0023391901154201948
438.08216533467686        0.0023478988278344236
439.1199503406056         0.002366667567898587
443.6058641401376         0.002446788577281563
443.6058641401376         0.0024477970403545173
445.58056112591976        0.0024863346789204
447.3990742821418         0.0025227529783482653
447.8358197649724         0.002531499424703671
449.3001633081492         0.002560824976426081
450.3000398616869         0.0025808489193890703
453.7620518614668         0.0026501806089616557
454.7578221406149         0.002670122317968987
456.3855876011295         0.0027027206248531176
456.3855876011295         0.0027038585049521
457.00951074859375        0.0027171858311902763
462.19895118723406        0.002828035005484282
462.5512475963411         0.002835560241878841
463.6315086565648         0.0028586351856928495
463.8719148914518         0.00286377038917913
464.07305426134553        0.0028680668317984
464.6242653416407         0.002879840990079025
465.11562714168383        0.0028903367362887395
470.7343190343099         0.0030103549471679845
471.7605209215618         0.0030322751586447
472.02008229629797        0.003037819525982244
475.3960059732353         0.0031144828485625926
475.3960059732353         0.0031099310294271402
478.3560133392685         0.003180742966424817
480.06008042597466        0.0032213912787991883
486.22172759298707        0.003364662281994183
487.3985975200894         0.0033920269347429933
489.24820824632565        0.003435034198399178
490.92215018650427        0.0034739568005149753
491.87146933276006        0.0034960304283533947
499.22927968543604        0.003667114692345344
500.9013288130923         0.003705993282666634
503.4882870337402         0.0037661453961274688
505.37665917695574        0.0038100539426623014
508.31597393673576        0.003878399072288363
511.5640626103061         0.003953923832164278
514.404060106095          0.0040199596305902745
516.0544238809762         0.004058333991739963
523.9723133359334         0.004242441249856277
526.5948101515477         0.004303419708937845
527.9067913990978         0.004333925978513918
528.6205607282119         0.0043505225873524565
529.7757694925388         0.0043773835733970385
530.4102202804843         0.004384259049515125
531.6298025688253         0.004389169780070555
540.3549367284065         0.004576638520226909
540.8552872610851         0.004588136065151434
542.4501088630054         0.004620392800984176
542.4501088630054         0.004615172603802502
544.8414380574802         0.0046587783784114555
544.8414380574802         0.004653560654369311
550.775277490518          0.004734300285384385
552.2656866479592         0.004754579749766805
553.579856747283          0.004772461192314725
553.9155718529489         0.004777029147693959
554.3569906928108         0.004783035375981013
555.380788760795          0.0047967204102888975
556.2797124111432         0.004830554767656509
561.2260645171438         0.004902476683210894
564.2913040338078         0.004933174179671192
565.479298380048          0.004945071603034131
566.6532520527464         0.004956828413070115
568.7916407797793         0.004978243764145281
575.1616468147977         0.005042037551433025
577.6971297153727         0.0050674296870042955
584.4908737069007         0.005135467088648872
585.4085440843809         0.005144657294833828
586.0319895957875         0.005150900923194858
587.2113152787615         0.005162711532376235
589.8208631779928         0.00518884540771098
589.9149610506977         0.005189787770974461
596.9023323767774         0.005231308497860694
597.0690661691834         0.0052034887226760935
597.822376660171          0.005206362297201323
600.1902638324627         0.005214855372438354
600.1902638324627         0.005215394828061201
603.2979125519548         0.005200399192420715
603.4362942250173         0.005199755467676542
604.2538241605031         0.005195952476739033
608.2203004809157         0.005177501197041966
609.8678974949024         0.005169836894805576
610.2350834828762         0.005184805162333486
614.4300081503268         0.005210926889845485
614.4300081503268         0.005167649445109113
616.0347839005157         0.0051928375187671304
620.2969160617633         0.005144793865165856
623.2608556511054         0.005111383712327295
623.4882442923932         0.0051088205395532936
623.9439847540337         0.00510368333684752
627.0810014184577         0.005068322222676227
627.9984955303415         0.005057980035333156
628.1289190913836         0.005056509873416282
631.8531856075517         0.005014529154927907
632.5464804344599         0.005006714189261102
635.3439345013278         0.004975180696382569
635.960922121004          0.004968225881666707
639.7623864610697         0.00492645553613897
639.7623864610697         0.004925374973008295
640.9847231192705         0.004904989705371014
642.6540289353038         0.00487567451147044
644.383878319156          0.004845296093316411
644.3874186266764         0.00484523392088495
644.3874186266767         0.0048663435231517385
645.8309370080051         0.004838818241667807
646.0855200888665         0.004833963803336855
650.5824951211152         0.004748214632983435
653.4670947109181         0.004693210542488468
653.5934508914097         0.004690801158943194
654.3381136252017         0.004676601789109509
655.1871853380759         0.0046604115291175325
661.3559647748144         0.004542784076218583
662.5467707951594         0.004520077561825199
663.6493212992019         0.004499053920306977
664.2888505872852         0.0044799453680842375
664.2888505872852         0.0044868592548982095
665.4876566400662         0.004455096140492515
668.2093089229501         0.00439868087895291
669.5613551561249         0.004370655240873456
671.0207213011494         0.004340405042024998
671.6343414948925         0.004327685730328311
673.7774447532792         0.004283262814297256
674.414278852649          0.004270062317489036
674.51054202267           0.0042715119528089944
674.51054202267           0.004268066944330047
674.6375159614568         0.004268580681973375
675.9193265258887         0.004238989303142291
681.8768892571171         0.004106664112170896
681.8768892571171         0.004101455333161429
682.3393619809851         0.0040958795842086625
683.2676517837184         0.004074232540355134
687.9961758376635         0.003963966794402926
689.1205612030627         0.003937746944479553
690.3005481719786         0.003910230505553364
691.7357546735611         0.0038767625325268913
692.5317805676029         0.003858199786942345
693.8043276380288         0.0038285249136882395
698.261734362972          0.0037245814268980658
703.0010003078025         0.0036140651878537365
703.6272138144822         0.003599462343784083
705.7317660189403         0.003550385715205583
706.2229205539652         0.003538932348242767
707.208781390506          0.0035159427897027105
709.3800530366492         0.0034622855627766767
709.3800530366492         0.0034653103122117505
711.1516166427461         0.0034215998159062445
712.8319498934869         0.0033830092662571485
715.2208874204752         0.003328144903962841
716.3784467077826         0.003301560386201906
718.3003897617799         0.00325062560356243
718.3003897617799         0.0032574210234800685
719.6252258515178         0.003221829678377162
720.4161736770111         0.003204638061553933
722.2475392309033         0.0031648324841808133
725.5258828229487         0.003093576169879447
726.9195136650229         0.003063284958932594
729.3978076597278         0.0030094180926753876
732.0652651747638         0.0029514396698102118
733.6431537189811         0.0029171435324827884
734.213801478528          0.002904740239488025
736.9220021744337         0.002845876244741756
736.9220021744337         0.0028398254696175925
737.214062940228          0.00283395768922423
737.3627183637018         0.002830971059449244
738.181597954594          0.0028145189845021263
738.56931338974           0.002806729410225124
745.8636424983191         0.0026601793551034258
747.0184649314338         0.002636977866836379
749.4604895461697         0.002587915254419124
750.104569042298          0.0025749750807231874
750.2880509995294         0.002571288752543328
750.6072245290712         0.002564876250769489
756.6742114991653         0.0024429846742235126
760.0855480955692         0.0023869892347951147
760.0855480955693         0.002374447656109855
763.2030952239613         0.0023278070040571148
764.2461988729251         0.002308005153982608
765.2943072421808         0.0022881082963592527
766.2618628838222         0.0022697406185416555
770.122752661929          0.00219644707708371
770.6798234503392         0.002185871874663563
770.6798234503392         0.0021850794518786546
771.1159856847677         0.0021776995823956243
774.5435513994817         0.002119705135324258
776.0183920057887         0.0020947508171286922
776.8304783132253         0.002081010308472112
778.2114798345656         0.002057643748557292
782.6872221093524         0.0019800263231564675
783.5848328564647         0.0019641420992511163
789.9707437713561         0.0018645668795500905
790.4434295266718         0.0018571963119736858
791.9933206524106         0.001829246441461224
791.9933206524106         0.00183302892983902
794.9277882822672         0.0017889525485001107
801.4434103643905         0.0016994849476034688
801.8356362053107         0.0016940991986213315
801.8952724070334         0.0016932803193451134
802.3669258864255         0.001686803930026656
803.0895244475527         0.0016768817523956391
803.4823745322142         0.001671487431769965
805.2336753318825         0.0016474398920232078
809.1790344637715         0.0015932652005268683
811.2512606128379         0.001564810956291167
811.6779517582108         0.0015589519557814382
815.3346625351066         0.0015087407654671057
816.0813444757054         0.0014985559756212252
819.7002003157434         0.0014561132352201136
822.1952410812789         0.001426803906262335
822.4709563527758         0.0014235650695657118
829.8567052420788         0.001336804425496769
832.8564268927003         0.0013015665929714264
833.7959836605893         0.001290529587578587
838.1239482035088         0.0012510821328410122
838.1239482035088         0.0012396888405021358
840.8316840287437         0.0012227651707791586
840.8316840287439         0.0012176855055598687
841.326814000732          0.0012130457104944513
842.6755223812117         0.0012004071492227274
846.1342246939722         0.0011679961241759938
846.7504596246547         0.0011622214711509743
850.1358492648047         0.0011304974491051776
850.3731990465993         0.0011282732768501105
852.0113611858781         0.001112922284100348
852.0123506284544         0.0011129130121696551
852.0124257360231         0.0011129123083469293
852.017170559498          0.0011128678452568498
852.0171705594984         0.0011101078787338914
858.760245474404          0.0010486110210519276
859.7079973154284         0.0010399675222296837
862.4100583434563         0.0010153247198605012
864.2359432055246         9.986726460035063E-4
865.1031358873302         9.907638468860645E-4
867.3345002684441         9.722708842227056E-4
867.3345002684441         9.704137989459736E-4
869.5449958736648         9.55605441326709E-4
870.0141516213637         9.520683665168157E-4
870.6945128348624         9.469389643477122E-4
872.0826164262598         9.364737270129153E-4
872.0826164262598         9.33949148572988E-4
872.9552460637534         9.27120333016193E-4
875.3158915973971         9.086469598328956E-4
875.6068597937548         9.063699707639369E-4
877.8510702798842         8.888077670271718E-4
878.1565723345562         8.864170423784312E-4
878.9630170539488         8.801061608671185E-4
881.7811306726842         8.580528437511511E-4
882.155253579909          8.551251225058031E-4
883.3578986053591         8.457137517406701E-4
884.2122629189455         8.390278725714194E-4
884.5155903478507         8.366541655870229E-4
885.0227930633549         8.405409593281409E-4
885.022793063355          8.326850203216465E-4
889.9975337696592         8.022926818857904E-4
894.937771609344          7.643096796191562E-4
895.7980489691017         7.624934196754861E-4
897.2263309377074         7.573696197905923E-4
897.3987675632825         7.561717623459596E-4
897.3987675632828         7.567365548592368E-4
902.1679342798551         7.295093925345959E-4
902.2758739624546         7.239246063122693E-4
902.275873962455          7.2889316512338E-4
906.3892599202065         7.004406336471468E-4
906.5403480158125         6.91989713922516E-4
906.5403480158125         6.995780477522959E-4
908.0273797516195         6.844718239293844E-4
915.2971767879754         6.477183821058594E-4
915.2971767879759         6.422838624192938E-4
919.3688636184492         6.226852229815389E-4
920.2299314160202         6.185405630411535E-4
920.5865385055515         6.168240720486825E-4
920.8803423339936         6.154098779962399E-4
922.2229803749176         6.089472299697404E-4
924.0022016463927         6.003831341461993E-4
930.727453089027          5.680118385038234E-4
933.4947059385846         5.546919558385656E-4
933.9906004241853         5.523050195079708E-4
937.8708425025197         5.336278793960835E-4
942.0860425596046         5.133384540261074E-4
946.1090695431757         4.939740336808911E-4
947.7512694323506         4.860694759747879E-4
953.4370167168939         4.587017250637967E-4
953.4446320301821         4.586650695483922E-4
953.518704630122          4.5830852882242703E-4
958.7234331477669         4.370817140357905E-4
958.7234331477669         4.33256111523217E-4
959.8001358770067         4.3273504802930195E-4
960.1107450259749         4.314811139651817E-4
964.686891877171          4.130071364980315E-4
965.814290324181          4.0845581107430354E-4
966.7667551600165         4.0540371991505523E-4
966.9731758911477         4.054439605751951E-4
966.9809675492254         4.0538589407870525E-4
969.4527342005433         3.9735566237036847E-4
969.4961149519356         3.97215248153391E-4
974.0036593550872         3.826252906826803E-4
975.0319644276364         3.792968870257092E-4
977.5645631509778         3.710994064555572E-4
980.5032044643845         3.615876528377116E-4
981.1520226026739         3.594875672484825E-4
983.0829613060471         3.5323753152147625E-4
985.2325872264773         3.462796520305752E-4
985.6931822913144         3.444765900690289E-4
985.6931822913144         3.4478880428596054E-4
988.8473098389214         3.3485739092254226E-4
991.0874599679031         3.280255650424981E-4
993.8216407673813         3.196870849982681E-4
997.4952151250839         3.084837196324705E-4
1003.1200595870655        2.91329530960278E-4
1005.7294909757612        2.8395404706215463E-4
1005.8502841323342        2.841713439063248E-4
1005.8592898929292        2.841441127013873E-4
1006.103755981172         2.826927266647359E-4
1006.103755981172         2.8340490738063874E-4
1006.239056497068         2.823508651367238E-4
1006.239056497068         2.781069023201944E-4
1006.7293328834054        2.769913313968326E-4
1007.4251764262906        2.7540801462840503E-4
1013.8361274065974        2.6082058862945457E-4
1015.5832018017201        2.568453096838193E-4
1016.1504518304711        2.5555459355719E-4
1016.1504518304712        2.5205179901960275E-4
1017.4113890703059        2.493191679690154E-4
1021.7964445479248        2.3981612659777123E-4
1023.2329131992861        2.367030939139072E-4
1026.4844911235994        2.2965646025230693E-4
1028.1356363096234        2.2607819286371792E-4
1028.3651047363205        2.2558090201678875E-4
1029.7689689176666        2.2253852787510923E-4
1029.8631946507862        2.223343272567499E-4
1032.4688220155435        2.1668756069433842E-4
1032.7766469532132        2.1602046009944184E-4
1035.1071443939843        2.1096993936868611E-4
1037.9299447536473        2.0485252791572844E-4
1038.8598835489413        2.0283721775842065E-4
1040.5797576421699        1.99110005013975E-4
1042.7798034219886        1.9434219165996922E-4
1045.9966948565086        1.8723892961122236E-4
1045.9966948565088        1.8737072857470707E-4
1047.5029130879243        1.8441095266453155E-4
1051.3826901697832        1.7712653669017255E-4
1053.2004485640336        1.7371363228736074E-4
1053.593277884791         1.729760816191278E-4
1054.2875253549457        1.7050055503692706E-4
1054.2875253549457        1.716726079259095E-4
1054.4059774966984        1.7029657958810124E-4
1057.0986660223755        1.6565975038057681E-4
1061.6779037934807        1.5777426966389395E-4
1066.3392838015113        1.4974733941834276E-4
1067.8766133037789        1.471000468444978E-4
1068.6630662655764        1.4574576912955445E-4
1069.8116178017272        1.4376795503840095E-4
1070.5645695902379        1.4247136658729267E-4
1072.6966213527933        1.3879995795970768E-4
1077.9453318099736        1.2976164041290808E-4
1081.4657012526113        1.2369953865206865E-4
1082.4713943571562        1.2196772781821556E-4
1084.0304731581004        1.2047826953209928E-4
1084.0304731581004        1.1928298279400862E-4
1086.5963681650594        1.1647593879000491E-4
1086.5963681650596        1.1684039984613708E-4
1088.5515507538025        1.1426506320759663E-4
1091.733603968239         1.1007371132255674E-4
1094.7258022737672        1.0613243342331008E-4
1094.740943837708         1.0611248918658949E-4
1096.0868266118637        1.043397129561646E-4
1097.1720875252092        1.0291022385954195E-4
1101.9981934496725        9.655335085938986E-5
1104.1577880647976        9.370876582229462E-5
1105.577285058668         9.18390260661921E-5
1108.4996795106374        8.798969273652945E-5
1112.7024176435266        8.245391026887779E-5
1113.5897738558283        8.128509822127918E-5
1114.3152359386454        8.032953064794477E-5
1115.067743505472         7.933833917621964E-5
1116.0009633046557        7.810911631259254E-5
1120.5030782065505        7.217899933808369E-5
1123.0217596468594        6.886143062026372E-5
1124.5582019522765        6.683765228624716E-5
1128.140113134621         6.211961359410573E-5
1131.4583843520818        5.887421804270411E-5
1132.9441973561402        5.850339638459191E-5
1134.2268505289057        5.74139845846564E-5
1134.2268505289057        5.73513795273406E-5
1135.95835146415          5.516404084187989E-5